{"pretty_formula": "Si", "band_gap": "None", "delta_volume": null, "density": 2.2811942835376744, "e_above_hull": 0, "formation_energy_per_atom": 0.0, "magnetic_type": "NM", "oxide_type": "None", "structure": "Full Formula (Si2)\nReduced Formula: Si\nabc   :   3.866975   3.866975   3.866975\nangles:  60.000000  60.000000  60.000000\nSites (2)\n  #  SP       a     b     c    magmom\n---  ----  ----  ----  ----  --------\n  0  Si    0.25  0.25  0.25        -0\n  1  Si    0     0     0           -0", "diel": "{'e_electronic': [[13.003383000000028, 0.0, 0.0], [0.0, 13.003383000000028, 0.0], [0.0, 0.0, 13.003383000000028]], 'e_total': [[13.003383000000028, 0.0, 0.0], [0.0, 13.003383000000028, 0.0], [0.0, 0.0, 13.003383000000028]], 'n': 3.606020382637906, 'poly_electronic': 13.003383000000028, 'poly_total': 13.003383000000028}", "blessedtasks": "{'GGA NSCF Uniform': 'mp-1686587', 'GGA DFPT Dielectric': 'mp-1141021', 'GGA Static': 'mp-1791788'}", "bondvalence": "None", "spacegroup": "{'symprec': 0.1, 'source': 'spglib', 'symbol': 'Fd-3m', 'number': 227, 'point_group': 'm-3m', 'crystal_system': 'cubic', 'hall': 'F 4d 2 3 -1d'}"}